
#include "martini_v3.0.0.itp"
#include "martini_v3.0.0_ions_v1.itp"
#include "martini_v3.0.0_solvents_v1.itp"
#include "martini_v3.0.0_phospholipids_v1.itp"
#include "molecule_0.itp"
[ system ]
POPC50 in water

[ molecules ]
POPC 1386
POPG 1386
W           189994
NA               9
NA               1386
molecule_0 1
